Program Version,EnergyPlus-Windows-OMP-64 7.2.0.006, YMD=2013.07.27 09:48
1,5,Environment Title[],Latitude[degrees],Longitude[degrees],Time Zone[],Elevation[m]
2,6,Day of Simulation[],Month[],Day of Month[],DST Indicator[1=yes 0=no],Hour[],StartMinute[],EndMinute[],DayType
3,3,Cumulative Day of Simulation[],Month[],Day of Month[],DST Indicator[1=yes 0=no],DayType  ! When Daily Report Variables Requested
4,2,Cumulative Days of Simulation[],Month[]  ! When Monthly Report Variables Requested
5,1,Cumulative Days of Simulation[] ! When Run Period Report Variables Requested
193,1,Whole Building,Total Electric Power Purchased [W] !Hourly
End of Data Dictionary
1,CHICAGO OHARE INTL AP ANN CLG .4% CONDNS DB=>MWB,  41.98, -87.92,  -6.00, 201.00
2,1, 7,21, 0, 1, 0.00,60.00,SummerDesignDay
193,1025.52952294201
2,1, 7,21, 0, 2, 0.00,60.00,SummerDesignDay
193,1025.52952294201
2,1, 7,21, 0, 3, 0.00,60.00,SummerDesignDay
193,1025.52952294201
2,1, 7,21, 0, 4, 0.00,60.00,SummerDesignDay
193,1025.52952294201
2,1, 7,21, 0, 5, 0.00,60.00,SummerDesignDay
193,1025.52952294201
2,1, 7,21, 0, 6, 0.00,60.00,SummerDesignDay
193,1025.52952294201
2,1, 7,21, 0, 7, 0.00,60.00,SummerDesignDay
193,1025.52952294201
2,1, 7,21, 0, 8, 0.00,60.00,SummerDesignDay
193,4731.11436102208
2,1, 7,21, 0, 9, 0.00,60.00,SummerDesignDay
193,4507.60026842165
2,1, 7,21, 0,10, 0.00,60.00,SummerDesignDay
193,14089.3468073568
2,1, 7,21, 0,11, 0.00,60.00,SummerDesignDay
193,14697.9281601081
2,1, 7,21, 0,12, 0.00,60.00,SummerDesignDay
193,15181.2968885496
2,1, 7,21, 0,13, 0.00,60.00,SummerDesignDay
193,15559.1790744078
2,1, 7,21, 0,14, 0.00,60.00,SummerDesignDay
193,15833.0085436547
2,1, 7,21, 0,15, 0.00,60.00,SummerDesignDay
193,15949.8044279342
2,1, 7,21, 0,16, 0.00,60.00,SummerDesignDay
193,15861.999144461
2,1, 7,21, 0,17, 0.00,60.00,SummerDesignDay
193,15620.4821287093
2,1, 7,21, 0,18, 0.00,60.00,SummerDesignDay
193,15278.5726266044
2,1, 7,21, 0,19, 0.00,60.00,SummerDesignDay
193,5928.04297803342
2,1, 7,21, 0,20, 0.00,60.00,SummerDesignDay
193,5274.21539784512
2,1, 7,21, 0,21, 0.00,60.00,SummerDesignDay
193,1152.44701099542
2,1, 7,21, 0,22, 0.00,60.00,SummerDesignDay
193,1025.52952294201
2,1, 7,21, 0,23, 0.00,60.00,SummerDesignDay
193,1025.52952294201
2,1, 7,21, 0,24, 0.00,60.00,SummerDesignDay
193,1025.52952294201
1,CHICAGO OHARE INTL AP ANN CLG .4% CONDNS DP=>MDB,  41.98, -87.92,  -6.00, 201.00
2,1, 7,21, 0, 1, 0.00,60.00,SummerDesignDay
193,1025.52952294201
2,1, 7,21, 0, 2, 0.00,60.00,SummerDesignDay
193,1025.52952294201
2,1, 7,21, 0, 3, 0.00,60.00,SummerDesignDay
193,1025.52952294201
2,1, 7,21, 0, 4, 0.00,60.00,SummerDesignDay
193,1025.52952294201
2,1, 7,21, 0, 5, 0.00,60.00,SummerDesignDay
193,1025.52952294201
2,1, 7,21, 0, 6, 0.00,60.00,SummerDesignDay
193,1025.52952294201
2,1, 7,21, 0, 7, 0.00,60.00,SummerDesignDay
193,1025.52952294201
2,1, 7,21, 0, 8, 0.00,60.00,SummerDesignDay
193,1087.5171697655
2,1, 7,21, 0, 9, 0.00,60.00,SummerDesignDay
193,1693.95542218957
2,1, 7,21, 0,10, 0.00,60.00,SummerDesignDay
193,12510.122783642
2,1, 7,21, 0,11, 0.00,60.00,SummerDesignDay
193,13261.9342024195
2,1, 7,21, 0,12, 0.00,60.00,SummerDesignDay
193,13773.8438569985
2,1, 7,21, 0,13, 0.00,60.00,SummerDesignDay
193,14140.720682058
2,1, 7,21, 0,14, 0.00,60.00,SummerDesignDay
193,14394.6863847186
2,1, 7,21, 0,15, 0.00,60.00,SummerDesignDay
193,14498.3147151327
2,1, 7,21, 0,16, 0.00,60.00,SummerDesignDay
193,14413.6356376639
2,1, 7,21, 0,17, 0.00,60.00,SummerDesignDay
193,14190.1306754731
2,1, 7,21, 0,18, 0.00,60.00,SummerDesignDay
193,13873.1774116059
2,1, 7,21, 0,19, 0.00,60.00,SummerDesignDay
193,4075.3465139317
2,1, 7,21, 0,20, 0.00,60.00,SummerDesignDay
193,3425.14609320611
2,1, 7,21, 0,21, 0.00,60.00,SummerDesignDay
193,1096.63275833011
2,1, 7,21, 0,22, 0.00,60.00,SummerDesignDay
193,1025.52952294201
2,1, 7,21, 0,23, 0.00,60.00,SummerDesignDay
193,1025.52952294201
2,1, 7,21, 0,24, 0.00,60.00,SummerDesignDay
193,1025.52952294201
1,CHICAGO OHARE INTL AP ANN CLG .4% CONDNS ENTH=>MDB,  41.98, -87.92,  -6.00, 201.00
2,1, 7,21, 0, 1, 0.00,60.00,SummerDesignDay
193,1025.52952294201
2,1, 7,21, 0, 2, 0.00,60.00,SummerDesignDay
193,1025.52952294201
2,1, 7,21, 0, 3, 0.00,60.00,SummerDesignDay
193,1025.52952294201
2,1, 7,21, 0, 4, 0.00,60.00,SummerDesignDay
193,1025.52952294201
2,1, 7,21, 0, 5, 0.00,60.00,SummerDesignDay
193,1025.52952294201
2,1, 7,21, 0, 6, 0.00,60.00,SummerDesignDay
193,1025.52952294201
2,1, 7,21, 0, 7, 0.00,60.00,SummerDesignDay
193,1025.52952294201
2,1, 7,21, 0, 8, 0.00,60.00,SummerDesignDay
193,3462.01910350873
2,1, 7,21, 0, 9, 0.00,60.00,SummerDesignDay
193,3952.09709686538
2,1, 7,21, 0,10, 0.00,60.00,SummerDesignDay
193,14708.3819729966
2,1, 7,21, 0,11, 0.00,60.00,SummerDesignDay
193,15723.1978532429
2,1, 7,21, 0,12, 0.00,60.00,SummerDesignDay
193,16633.5258620981
2,1, 7,21, 0,13, 0.00,60.00,SummerDesignDay
193,17380.1950840313
2,1, 7,21, 0,14, 0.00,60.00,SummerDesignDay
193,17938.316927792
2,1, 7,21, 0,15, 0.00,60.00,SummerDesignDay
193,18168.8788557856
2,1, 7,21, 0,16, 0.00,60.00,SummerDesignDay
193,17953.9638781821
2,1, 7,21, 0,17, 0.00,60.00,SummerDesignDay
193,17429.8523867765
2,1, 7,21, 0,18, 0.00,60.00,SummerDesignDay
193,16746.6844605186
2,1, 7,21, 0,19, 0.00,60.00,SummerDesignDay
193,6465.22780636501
2,1, 7,21, 0,20, 0.00,60.00,SummerDesignDay
193,5572.66163798601
2,1, 7,21, 0,21, 0.00,60.00,SummerDesignDay
193,1194.7386949747
2,1, 7,21, 0,22, 0.00,60.00,SummerDesignDay
193,1025.52952294201
2,1, 7,21, 0,23, 0.00,60.00,SummerDesignDay
193,1025.52952294201
2,1, 7,21, 0,24, 0.00,60.00,SummerDesignDay
193,1025.52952294201
1,CHICAGO OHARE INTL AP ANN CLG .4% CONDNS WB=>MDB,  41.98, -87.92,  -6.00, 201.00
2,1, 7,21, 0, 1, 0.00,60.00,SummerDesignDay
193,1025.52952294201
2,1, 7,21, 0, 2, 0.00,60.00,SummerDesignDay
193,1025.52952294201
2,1, 7,21, 0, 3, 0.00,60.00,SummerDesignDay
193,1025.52952294201
2,1, 7,21, 0, 4, 0.00,60.00,SummerDesignDay
193,1025.52952294201
2,1, 7,21, 0, 5, 0.00,60.00,SummerDesignDay
193,1025.52952294201
2,1, 7,21, 0, 6, 0.00,60.00,SummerDesignDay
193,1025.52952294201
2,1, 7,21, 0, 7, 0.00,60.00,SummerDesignDay
193,1025.52952294201
2,1, 7,21, 0, 8, 0.00,60.00,SummerDesignDay
193,3172.5393149094
2,1, 7,21, 0, 9, 0.00,60.00,SummerDesignDay
193,3639.10009422015
2,1, 7,21, 0,10, 0.00,60.00,SummerDesignDay
193,13919.7567962331
2,1, 7,21, 0,11, 0.00,60.00,SummerDesignDay
193,14462.5246208313
2,1, 7,21, 0,12, 0.00,60.00,SummerDesignDay
193,14901.1468751721
2,1, 7,21, 0,13, 0.00,60.00,SummerDesignDay
193,15250.7667040389
2,1, 7,21, 0,14, 0.00,60.00,SummerDesignDay
193,15506.8191617127
2,1, 7,21, 0,15, 0.00,60.00,SummerDesignDay
193,15614.0885839846
2,1, 7,21, 0,16, 0.00,60.00,SummerDesignDay
193,15525.162829629
2,1, 7,21, 0,17, 0.00,60.00,SummerDesignDay
193,15289.4683278781
2,1, 7,21, 0,18, 0.00,60.00,SummerDesignDay
193,14956.7863980276
2,1, 7,21, 0,19, 0.00,60.00,SummerDesignDay
193,5356.42774472857
2,1, 7,21, 0,20, 0.00,60.00,SummerDesignDay
193,4719.27194249881
2,1, 7,21, 0,21, 0.00,60.00,SummerDesignDay
193,1163.2637207293
2,1, 7,21, 0,22, 0.00,60.00,SummerDesignDay
193,1025.52952294201
2,1, 7,21, 0,23, 0.00,60.00,SummerDesignDay
193,1025.52952294201
2,1, 7,21, 0,24, 0.00,60.00,SummerDesignDay
193,1025.52952294201
1,CHICAGO OHARE INTL AP ANN HTG 99.6% CONDNS DB,  41.98, -87.92,  -6.00, 201.00
2,1, 1,21, 0, 1, 0.00,60.00,WinterDesignDay
193,1025.52952294201
2,1, 1,21, 0, 2, 0.00,60.00,WinterDesignDay
193,1025.52952294201
2,1, 1,21, 0, 3, 0.00,60.00,WinterDesignDay
193,1025.52952294201
2,1, 1,21, 0, 4, 0.00,60.00,WinterDesignDay
193,1025.52952294201
2,1, 1,21, 0, 5, 0.00,60.00,WinterDesignDay
193,1025.52952294201
2,1, 1,21, 0, 6, 0.00,60.00,WinterDesignDay
193,1025.52952294201
2,1, 1,21, 0, 7, 0.00,60.00,WinterDesignDay
193,1025.52952294201
2,1, 1,21, 0, 8, 0.00,60.00,WinterDesignDay
193,1025.52952294201
2,1, 1,21, 0, 9, 0.00,60.00,WinterDesignDay
193,1025.52952294201
2,1, 1,21, 0,10, 0.00,60.00,WinterDesignDay
193,7955.52952294201
2,1, 1,21, 0,11, 0.00,60.00,WinterDesignDay
193,7955.52952294201
2,1, 1,21, 0,12, 0.00,60.00,WinterDesignDay
193,7955.52952294201
2,1, 1,21, 0,13, 0.00,60.00,WinterDesignDay
193,7955.52952294201
2,1, 1,21, 0,14, 0.00,60.00,WinterDesignDay
193,7955.52952294201
2,1, 1,21, 0,15, 0.00,60.00,WinterDesignDay
193,7955.52952294201
2,1, 1,21, 0,16, 0.00,60.00,WinterDesignDay
193,7955.52952294201
2,1, 1,21, 0,17, 0.00,60.00,WinterDesignDay
193,7955.52952294201
2,1, 1,21, 0,18, 0.00,60.00,WinterDesignDay
193,7955.52952294201
2,1, 1,21, 0,19, 0.00,60.00,WinterDesignDay
193,1025.52952294201
2,1, 1,21, 0,20, 0.00,60.00,WinterDesignDay
193,1025.52952294201
2,1, 1,21, 0,21, 0.00,60.00,WinterDesignDay
193,1025.52952294201
2,1, 1,21, 0,22, 0.00,60.00,WinterDesignDay
193,1025.52952294201
2,1, 1,21, 0,23, 0.00,60.00,WinterDesignDay
193,1025.52952294201
2,1, 1,21, 0,24, 0.00,60.00,WinterDesignDay
193,1025.52952294201
1,CHICAGO OHARE INTL AP ANN HTG WIND 99.6% CONDNS WS=>MCDB,  41.98, -87.92,  -6.00, 201.00
2,1, 1,21, 0, 1, 0.00,60.00,WinterDesignDay
193,1025.52952294201
2,1, 1,21, 0, 2, 0.00,60.00,WinterDesignDay
193,1025.52952294201
2,1, 1,21, 0, 3, 0.00,60.00,WinterDesignDay
193,1025.52952294201
2,1, 1,21, 0, 4, 0.00,60.00,WinterDesignDay
193,1025.52952294201
2,1, 1,21, 0, 5, 0.00,60.00,WinterDesignDay
193,1025.52952294201
2,1, 1,21, 0, 6, 0.00,60.00,WinterDesignDay
193,1025.52952294201
2,1, 1,21, 0, 7, 0.00,60.00,WinterDesignDay
193,1025.52952294201
2,1, 1,21, 0, 8, 0.00,60.00,WinterDesignDay
193,1025.52952294201
2,1, 1,21, 0, 9, 0.00,60.00,WinterDesignDay
193,1025.52952294201
2,1, 1,21, 0,10, 0.00,60.00,WinterDesignDay
193,7955.52952294201
2,1, 1,21, 0,11, 0.00,60.00,WinterDesignDay
193,7955.52952294201
2,1, 1,21, 0,12, 0.00,60.00,WinterDesignDay
193,7955.52952294201
2,1, 1,21, 0,13, 0.00,60.00,WinterDesignDay
193,7955.52952294201
2,1, 1,21, 0,14, 0.00,60.00,WinterDesignDay
193,7955.52952294201
2,1, 1,21, 0,15, 0.00,60.00,WinterDesignDay
193,7955.52952294201
2,1, 1,21, 0,16, 0.00,60.00,WinterDesignDay
193,7955.52952294201
2,1, 1,21, 0,17, 0.00,60.00,WinterDesignDay
193,7955.52952294201
2,1, 1,21, 0,18, 0.00,60.00,WinterDesignDay
193,7955.52952294201
2,1, 1,21, 0,19, 0.00,60.00,WinterDesignDay
193,1025.52952294201
2,1, 1,21, 0,20, 0.00,60.00,WinterDesignDay
193,1025.52952294201
2,1, 1,21, 0,21, 0.00,60.00,WinterDesignDay
193,1025.52952294201
2,1, 1,21, 0,22, 0.00,60.00,WinterDesignDay
193,1025.52952294201
2,1, 1,21, 0,23, 0.00,60.00,WinterDesignDay
193,1025.52952294201
2,1, 1,21, 0,24, 0.00,60.00,WinterDesignDay
193,1025.52952294201
1,CHICAGO OHARE INTL AP ANN HUM_N 99.6% CONDNS DP=>MCDB,  41.98, -87.92,  -6.00, 201.00
2,1, 1,21, 0, 1, 0.00,60.00,WinterDesignDay
193,1025.52952294201
2,1, 1,21, 0, 2, 0.00,60.00,WinterDesignDay
193,1025.52952294201
2,1, 1,21, 0, 3, 0.00,60.00,WinterDesignDay
193,1025.52952294201
2,1, 1,21, 0, 4, 0.00,60.00,WinterDesignDay
193,1025.52952294201
2,1, 1,21, 0, 5, 0.00,60.00,WinterDesignDay
193,1025.52952294201
2,1, 1,21, 0, 6, 0.00,60.00,WinterDesignDay
193,1025.52952294201
2,1, 1,21, 0, 7, 0.00,60.00,WinterDesignDay
193,1025.52952294201
2,1, 1,21, 0, 8, 0.00,60.00,WinterDesignDay
193,1025.52952294201
2,1, 1,21, 0, 9, 0.00,60.00,WinterDesignDay
193,1025.52952294201
2,1, 1,21, 0,10, 0.00,60.00,WinterDesignDay
193,7955.52952294201
2,1, 1,21, 0,11, 0.00,60.00,WinterDesignDay
193,7955.52952294201
2,1, 1,21, 0,12, 0.00,60.00,WinterDesignDay
193,7955.52952294201
2,1, 1,21, 0,13, 0.00,60.00,WinterDesignDay
193,7955.52952294201
2,1, 1,21, 0,14, 0.00,60.00,WinterDesignDay
193,7955.52952294201
2,1, 1,21, 0,15, 0.00,60.00,WinterDesignDay
193,7955.52952294201
2,1, 1,21, 0,16, 0.00,60.00,WinterDesignDay
193,7955.52952294201
2,1, 1,21, 0,17, 0.00,60.00,WinterDesignDay
193,7955.52952294201
2,1, 1,21, 0,18, 0.00,60.00,WinterDesignDay
193,7955.52952294201
2,1, 1,21, 0,19, 0.00,60.00,WinterDesignDay
193,1025.52952294201
2,1, 1,21, 0,20, 0.00,60.00,WinterDesignDay
193,1025.52952294201
2,1, 1,21, 0,21, 0.00,60.00,WinterDesignDay
193,1025.52952294201
2,1, 1,21, 0,22, 0.00,60.00,WinterDesignDay
193,1025.52952294201
2,1, 1,21, 0,23, 0.00,60.00,WinterDesignDay
193,1025.52952294201
2,1, 1,21, 0,24, 0.00,60.00,WinterDesignDay
193,1025.52952294201
1,RUN PERIOD 1,  41.98, -87.92,  -6.00, 201.00
2,1, 1, 1, 0, 1, 0.00,60.00,Thursday       
193,1025.52952294201
2,1, 1, 1, 0, 2, 0.00,60.00,Thursday       
193,1025.52952294201
2,1, 1, 1, 0, 3, 0.00,60.00,Thursday       
193,1025.52952294201
2,1, 1, 1, 0, 4, 0.00,60.00,Thursday       
193,1025.52952294201
2,1, 1, 1, 0, 5, 0.00,60.00,Thursday       
193,1025.52952294201
2,1, 1, 1, 0, 6, 0.00,60.00,Thursday       
193,1025.52952294201
2,1, 1, 1, 0, 7, 0.00,60.00,Thursday       
193,1025.52952294201
2,1, 1, 1, 0, 8, 0.00,60.00,Thursday       
193,1025.52952294201
2,1, 1, 1, 0, 9, 0.00,60.00,Thursday       
193,1025.52952294201
2,1, 1, 1, 0,10, 0.00,60.00,Thursday       
193,7955.52952294201
2,1, 1, 1, 0,11, 0.00,60.00,Thursday       
193,7955.52952294201
2,1, 1, 1, 0,12, 0.00,60.00,Thursday       
193,7955.52952294201
2,1, 1, 1, 0,13, 0.00,60.00,Thursday       
193,7955.52952294201
2,1, 1, 1, 0,14, 0.00,60.00,Thursday       
193,7955.52952294201
2,1, 1, 1, 0,15, 0.00,60.00,Thursday       
193,7955.52952294201
2,1, 1, 1, 0,16, 0.00,60.00,Thursday       
193,7955.52952294201
2,1, 1, 1, 0,17, 0.00,60.00,Thursday       
193,7955.52952294201
2,1, 1, 1, 0,18, 0.00,60.00,Thursday       
193,7955.52952294201
2,1, 1, 1, 0,19, 0.00,60.00,Thursday       
193,1025.52952294201
2,1, 1, 1, 0,20, 0.00,60.00,Thursday       
193,1025.52952294201
2,1, 1, 1, 0,21, 0.00,60.00,Thursday       
193,1025.52952294201
2,1, 1, 1, 0,22, 0.00,60.00,Thursday       
193,1025.52952294201
2,1, 1, 1, 0,23, 0.00,60.00,Thursday       
193,1025.52952294201
2,1, 1, 1, 0,24, 0.00,60.00,Thursday       
193,1025.52952294201
2,2, 1, 2, 0, 1, 0.00,60.00,Friday         
193,1025.52952294201
2,2, 1, 2, 0, 2, 0.00,60.00,Friday         
193,1025.52952294201
2,2, 1, 2, 0, 3, 0.00,60.00,Friday         
193,1025.52952294201
2,2, 1, 2, 0, 4, 0.00,60.00,Friday         
193,1025.52952294201
2,2, 1, 2, 0, 5, 0.00,60.00,Friday         
193,1025.52952294201
2,2, 1, 2, 0, 6, 0.00,60.00,Friday         
193,1025.52952294201
2,2, 1, 2, 0, 7, 0.00,60.00,Friday         
193,1025.52952294201
2,2, 1, 2, 0, 8, 0.00,60.00,Friday         
193,1025.52952294201
2,2, 1, 2, 0, 9, 0.00,60.00,Friday         
193,1025.52952294201
2,2, 1, 2, 0,10, 0.00,60.00,Friday         
193,7955.52952294201
2,2, 1, 2, 0,11, 0.00,60.00,Friday         
193,7955.52952294201
2,2, 1, 2, 0,12, 0.00,60.00,Friday         
193,7955.52952294201
2,2, 1, 2, 0,13, 0.00,60.00,Friday         
193,7955.52952294201
2,2, 1, 2, 0,14, 0.00,60.00,Friday         
193,7955.52952294201
2,2, 1, 2, 0,15, 0.00,60.00,Friday         
193,7955.52952294201
2,2, 1, 2, 0,16, 0.00,60.00,Friday         
193,7955.52952294201
2,2, 1, 2, 0,17, 0.00,60.00,Friday         
193,7955.52952294201
2,2, 1, 2, 0,18, 0.00,60.00,Friday         
193,7955.52952294201
2,2, 1, 2, 0,19, 0.00,60.00,Friday         
193,1025.52952294201
2,2, 1, 2, 0,20, 0.00,60.00,Friday         
193,1025.52952294201
2,2, 1, 2, 0,21, 0.00,60.00,Friday         
193,1025.52952294201
2,2, 1, 2, 0,22, 0.00,60.00,Friday         
193,1025.52952294201
2,2, 1, 2, 0,23, 0.00,60.00,Friday         
193,1025.52952294201
2,2, 1, 2, 0,24, 0.00,60.00,Friday         
193,1025.52952294201
2,3, 1, 3, 0, 1, 0.00,60.00,Saturday       
193,1025.52952294201
2,3, 1, 3, 0, 2, 0.00,60.00,Saturday       
193,1025.52952294201
2,3, 1, 3, 0, 3, 0.00,60.00,Saturday       
193,1025.52952294201
2,3, 1, 3, 0, 4, 0.00,60.00,Saturday       
193,1025.52952294201
2,3, 1, 3, 0, 5, 0.00,60.00,Saturday       
193,1025.52952294201
2,3, 1, 3, 0, 6, 0.00,60.00,Saturday       
193,1025.52952294201
2,3, 1, 3, 0, 7, 0.00,60.00,Saturday       
193,1025.52952294201
2,3, 1, 3, 0, 8, 0.00,60.00,Saturday       
193,1025.52952294201
2,3, 1, 3, 0, 9, 0.00,60.00,Saturday       
193,1025.52952294201
2,3, 1, 3, 0,10, 0.00,60.00,Saturday       
193,4875.52952294201
2,3, 1, 3, 0,11, 0.00,60.00,Saturday       
193,4875.52952294201
2,3, 1, 3, 0,12, 0.00,60.00,Saturday       
193,4875.52952294201
2,3, 1, 3, 0,13, 0.00,60.00,Saturday       
193,4875.52952294201
2,3, 1, 3, 0,14, 0.00,60.00,Saturday       
193,4875.52952294201
2,3, 1, 3, 0,15, 0.00,60.00,Saturday       
193,4875.52952294201
2,3, 1, 3, 0,16, 0.00,60.00,Saturday       
193,4875.52952294201
2,3, 1, 3, 0,17, 0.00,60.00,Saturday       
193,4875.52952294201
2,3, 1, 3, 0,18, 0.00,60.00,Saturday       
193,1025.52952294201
2,3, 1, 3, 0,19, 0.00,60.00,Saturday       
193,1025.52952294201
2,3, 1, 3, 0,20, 0.00,60.00,Saturday       
193,1025.52952294201
2,3, 1, 3, 0,21, 0.00,60.00,Saturday       
193,1025.52952294201
2,3, 1, 3, 0,22, 0.00,60.00,Saturday       
193,1025.52952294201
2,3, 1, 3, 0,23, 0.00,60.00,Saturday       
193,1025.52952294201
2,3, 1, 3, 0,24, 0.00,60.00,Saturday       
193,1025.52952294201
2,4, 1, 4, 0, 1, 0.00,60.00,Sunday         
193,1025.52952294201
2,4, 1, 4, 0, 2, 0.00,60.00,Sunday         
193,1025.52952294201
2,4, 1, 4, 0, 3, 0.00,60.00,Sunday         
193,1025.52952294201
2,4, 1, 4, 0, 4, 0.00,60.00,Sunday         
193,1025.52952294201
2,4, 1, 4, 0, 5, 0.00,60.00,Sunday         
193,1025.52952294201
2,4, 1, 4, 0, 6, 0.00,60.00,Sunday         
193,1025.52952294201
2,4, 1, 4, 0, 7, 0.00,60.00,Sunday         
193,1025.52952294201
2,4, 1, 4, 0, 8, 0.00,60.00,Sunday         
193,1025.52952294201
2,4, 1, 4, 0, 9, 0.00,60.00,Sunday         
193,1025.52952294201
2,4, 1, 4, 0,10, 0.00,60.00,Sunday         
193,4875.52952294201
2,4, 1, 4, 0,11, 0.00,60.00,Sunday         
193,4875.52952294201
2,4, 1, 4, 0,12, 0.00,60.00,Sunday         
193,4875.52952294201
2,4, 1, 4, 0,13, 0.00,60.00,Sunday         
193,4875.52952294201
2,4, 1, 4, 0,14, 0.00,60.00,Sunday         
193,4875.52952294201
2,4, 1, 4, 0,15, 0.00,60.00,Sunday         
193,4875.52952294201
2,4, 1, 4, 0,16, 0.00,60.00,Sunday         
193,4875.52952294201
2,4, 1, 4, 0,17, 0.00,60.00,Sunday         
193,4875.52952294201
2,4, 1, 4, 0,18, 0.00,60.00,Sunday         
193,1025.52952294201
2,4, 1, 4, 0,19, 0.00,60.00,Sunday         
193,1025.52952294201
2,4, 1, 4, 0,20, 0.00,60.00,Sunday         
193,1025.52952294201
2,4, 1, 4, 0,21, 0.00,60.00,Sunday         
193,1025.52952294201
2,4, 1, 4, 0,22, 0.00,60.00,Sunday         
193,1025.52952294201
2,4, 1, 4, 0,23, 0.00,60.00,Sunday         
193,1025.52952294201
2,4, 1, 4, 0,24, 0.00,60.00,Sunday         
193,1025.52952294201
2,5, 1, 5, 0, 1, 0.00,60.00,Monday         
193,1025.52952294201
2,5, 1, 5, 0, 2, 0.00,60.00,Monday         
193,1025.52952294201
2,5, 1, 5, 0, 3, 0.00,60.00,Monday         
193,1025.52952294201
2,5, 1, 5, 0, 4, 0.00,60.00,Monday         
193,1025.52952294201
2,5, 1, 5, 0, 5, 0.00,60.00,Monday         
193,1025.52952294201
2,5, 1, 5, 0, 6, 0.00,60.00,Monday         
193,1025.52952294201
2,5, 1, 5, 0, 7, 0.00,60.00,Monday         
193,1025.52952294201
2,5, 1, 5, 0, 8, 0.00,60.00,Monday         
193,1025.52952294201
2,5, 1, 5, 0, 9, 0.00,60.00,Monday         
193,1025.52952294201
2,5, 1, 5, 0,10, 0.00,60.00,Monday         
193,7955.52952294201
2,5, 1, 5, 0,11, 0.00,60.00,Monday         
193,7955.52952294201
2,5, 1, 5, 0,12, 0.00,60.00,Monday         
193,7955.52952294201
2,5, 1, 5, 0,13, 0.00,60.00,Monday         
193,7955.52952294201
2,5, 1, 5, 0,14, 0.00,60.00,Monday         
193,7955.52952294201
2,5, 1, 5, 0,15, 0.00,60.00,Monday         
193,7955.52952294201
2,5, 1, 5, 0,16, 0.00,60.00,Monday         
193,7955.52952294201
2,5, 1, 5, 0,17, 0.00,60.00,Monday         
193,7955.52952294201
2,5, 1, 5, 0,18, 0.00,60.00,Monday         
193,7955.52952294201
2,5, 1, 5, 0,19, 0.00,60.00,Monday         
193,1025.52952294201
2,5, 1, 5, 0,20, 0.00,60.00,Monday         
193,1025.52952294201
2,5, 1, 5, 0,21, 0.00,60.00,Monday         
193,1025.52952294201
2,5, 1, 5, 0,22, 0.00,60.00,Monday         
193,1025.52952294201
2,5, 1, 5, 0,23, 0.00,60.00,Monday         
193,1025.52952294201
2,5, 1, 5, 0,24, 0.00,60.00,Monday         
193,1025.52952294201
2,6, 1, 6, 0, 1, 0.00,60.00,Tuesday        
193,1025.52952294201
2,6, 1, 6, 0, 2, 0.00,60.00,Tuesday        
193,1025.52952294201
2,6, 1, 6, 0, 3, 0.00,60.00,Tuesday        
193,1025.52952294201
2,6, 1, 6, 0, 4, 0.00,60.00,Tuesday        
193,1025.52952294201
2,6, 1, 6, 0, 5, 0.00,60.00,Tuesday        
193,1025.52952294201
2,6, 1, 6, 0, 6, 0.00,60.00,Tuesday        
193,1025.52952294201
2,6, 1, 6, 0, 7, 0.00,60.00,Tuesday        
193,1025.52952294201
2,6, 1, 6, 0, 8, 0.00,60.00,Tuesday        
193,1025.52952294201
2,6, 1, 6, 0, 9, 0.00,60.00,Tuesday        
193,1025.52952294201
2,6, 1, 6, 0,10, 0.00,60.00,Tuesday        
193,7955.52952294201
2,6, 1, 6, 0,11, 0.00,60.00,Tuesday        
193,7955.52952294201
2,6, 1, 6, 0,12, 0.00,60.00,Tuesday        
193,7955.52952294201
2,6, 1, 6, 0,13, 0.00,60.00,Tuesday        
193,7955.52952294201
2,6, 1, 6, 0,14, 0.00,60.00,Tuesday        
193,7955.52952294201
2,6, 1, 6, 0,15, 0.00,60.00,Tuesday        
193,7955.52952294201
2,6, 1, 6, 0,16, 0.00,60.00,Tuesday        
193,7955.52952294201
2,6, 1, 6, 0,17, 0.00,60.00,Tuesday        
193,7955.52952294201
2,6, 1, 6, 0,18, 0.00,60.00,Tuesday        
193,7955.52952294201
2,6, 1, 6, 0,19, 0.00,60.00,Tuesday        
193,1025.52952294201
2,6, 1, 6, 0,20, 0.00,60.00,Tuesday        
193,1025.52952294201
2,6, 1, 6, 0,21, 0.00,60.00,Tuesday        
193,1025.52952294201
2,6, 1, 6, 0,22, 0.00,60.00,Tuesday        
193,1025.52952294201
2,6, 1, 6, 0,23, 0.00,60.00,Tuesday        
193,1025.52952294201
2,6, 1, 6, 0,24, 0.00,60.00,Tuesday        
193,1025.52952294201
2,7, 1, 7, 0, 1, 0.00,60.00,Wednesday      
193,1025.52952294201
2,7, 1, 7, 0, 2, 0.00,60.00,Wednesday      
193,1025.52952294201
2,7, 1, 7, 0, 3, 0.00,60.00,Wednesday      
193,1025.52952294201
2,7, 1, 7, 0, 4, 0.00,60.00,Wednesday      
193,1025.52952294201
2,7, 1, 7, 0, 5, 0.00,60.00,Wednesday      
193,1025.52952294201
2,7, 1, 7, 0, 6, 0.00,60.00,Wednesday      
193,1025.52952294201
2,7, 1, 7, 0, 7, 0.00,60.00,Wednesday      
193,1025.52952294201
2,7, 1, 7, 0, 8, 0.00,60.00,Wednesday      
193,1025.52952294201
2,7, 1, 7, 0, 9, 0.00,60.00,Wednesday      
193,1025.52952294201
2,7, 1, 7, 0,10, 0.00,60.00,Wednesday      
193,7955.52952294201
2,7, 1, 7, 0,11, 0.00,60.00,Wednesday      
193,7955.52952294201
2,7, 1, 7, 0,12, 0.00,60.00,Wednesday      
193,7955.52952294201
2,7, 1, 7, 0,13, 0.00,60.00,Wednesday      
193,7955.52952294201
2,7, 1, 7, 0,14, 0.00,60.00,Wednesday      
193,7955.52952294201
2,7, 1, 7, 0,15, 0.00,60.00,Wednesday      
193,7955.52952294201
2,7, 1, 7, 0,16, 0.00,60.00,Wednesday      
193,7955.52952294201
2,7, 1, 7, 0,17, 0.00,60.00,Wednesday      
193,7955.52952294201
2,7, 1, 7, 0,18, 0.00,60.00,Wednesday      
193,7955.52952294201
2,7, 1, 7, 0,19, 0.00,60.00,Wednesday      
193,1025.52952294201
2,7, 1, 7, 0,20, 0.00,60.00,Wednesday      
193,1025.52952294201
2,7, 1, 7, 0,21, 0.00,60.00,Wednesday      
193,1025.52952294201
2,7, 1, 7, 0,22, 0.00,60.00,Wednesday      
193,1025.52952294201
2,7, 1, 7, 0,23, 0.00,60.00,Wednesday      
193,1025.52952294201
2,7, 1, 7, 0,24, 0.00,60.00,Wednesday      
193,1025.52952294201
2,8, 1, 8, 0, 1, 0.00,60.00,Thursday       
193,1025.52952294201
2,8, 1, 8, 0, 2, 0.00,60.00,Thursday       
193,1025.52952294201
2,8, 1, 8, 0, 3, 0.00,60.00,Thursday       
193,1025.52952294201
2,8, 1, 8, 0, 4, 0.00,60.00,Thursday       
193,1025.52952294201
2,8, 1, 8, 0, 5, 0.00,60.00,Thursday       
193,1025.52952294201
2,8, 1, 8, 0, 6, 0.00,60.00,Thursday       
193,1025.52952294201
2,8, 1, 8, 0, 7, 0.00,60.00,Thursday       
193,1025.52952294201
2,8, 1, 8, 0, 8, 0.00,60.00,Thursday       
193,1025.52952294201
2,8, 1, 8, 0, 9, 0.00,60.00,Thursday       
193,1025.52952294201
2,8, 1, 8, 0,10, 0.00,60.00,Thursday       
193,7955.52952294201
2,8, 1, 8, 0,11, 0.00,60.00,Thursday       
193,7955.52952294201
2,8, 1, 8, 0,12, 0.00,60.00,Thursday       
193,7955.52952294201
2,8, 1, 8, 0,13, 0.00,60.00,Thursday       
193,7955.52952294201
2,8, 1, 8, 0,14, 0.00,60.00,Thursday       
193,7955.52952294201
2,8, 1, 8, 0,15, 0.00,60.00,Thursday       
193,7955.52952294201
2,8, 1, 8, 0,16, 0.00,60.00,Thursday       
193,7955.52952294201
2,8, 1, 8, 0,17, 0.00,60.00,Thursday       
193,7955.52952294201
2,8, 1, 8, 0,18, 0.00,60.00,Thursday       
193,7955.52952294201
2,8, 1, 8, 0,19, 0.00,60.00,Thursday       
193,1025.52952294201
2,8, 1, 8, 0,20, 0.00,60.00,Thursday       
193,1025.52952294201
2,8, 1, 8, 0,21, 0.00,60.00,Thursday       
193,1025.52952294201
2,8, 1, 8, 0,22, 0.00,60.00,Thursday       
193,1025.52952294201
2,8, 1, 8, 0,23, 0.00,60.00,Thursday       
193,1025.52952294201
2,8, 1, 8, 0,24, 0.00,60.00,Thursday       
193,1025.52952294201
2,9, 1, 9, 0, 1, 0.00,60.00,Friday         
193,1025.52952294201
2,9, 1, 9, 0, 2, 0.00,60.00,Friday         
193,1025.52952294201
2,9, 1, 9, 0, 3, 0.00,60.00,Friday         
193,1025.52952294201
2,9, 1, 9, 0, 4, 0.00,60.00,Friday         
193,1025.52952294201
2,9, 1, 9, 0, 5, 0.00,60.00,Friday         
193,1025.52952294201
2,9, 1, 9, 0, 6, 0.00,60.00,Friday         
193,1025.52952294201
2,9, 1, 9, 0, 7, 0.00,60.00,Friday         
193,1025.52952294201
2,9, 1, 9, 0, 8, 0.00,60.00,Friday         
193,1025.52952294201
2,9, 1, 9, 0, 9, 0.00,60.00,Friday         
193,1025.52952294201
2,9, 1, 9, 0,10, 0.00,60.00,Friday         
193,7955.52952294201
2,9, 1, 9, 0,11, 0.00,60.00,Friday         
193,7955.52952294201
2,9, 1, 9, 0,12, 0.00,60.00,Friday         
193,7955.52952294201
2,9, 1, 9, 0,13, 0.00,60.00,Friday         
193,7955.52952294201
2,9, 1, 9, 0,14, 0.00,60.00,Friday         
193,7955.52952294201
2,9, 1, 9, 0,15, 0.00,60.00,Friday         
193,7955.52952294201
2,9, 1, 9, 0,16, 0.00,60.00,Friday         
193,7955.52952294201
2,9, 1, 9, 0,17, 0.00,60.00,Friday         
193,7955.52952294201
2,9, 1, 9, 0,18, 0.00,60.00,Friday         
193,7955.52952294201
2,9, 1, 9, 0,19, 0.00,60.00,Friday         
193,1025.52952294201
2,9, 1, 9, 0,20, 0.00,60.00,Friday         
193,1025.52952294201
2,9, 1, 9, 0,21, 0.00,60.00,Friday         
193,1025.52952294201
2,9, 1, 9, 0,22, 0.00,60.00,Friday         
193,1025.52952294201
2,9, 1, 9, 0,23, 0.00,60.00,Friday         
193,1025.52952294201
2,9, 1, 9, 0,24, 0.00,60.00,Friday         
193,1025.52952294201
2,10, 1,10, 0, 1, 0.00,60.00,Saturday       
193,1025.52952294201
2,10, 1,10, 0, 2, 0.00,60.00,Saturday       
193,1025.52952294201
2,10, 1,10, 0, 3, 0.00,60.00,Saturday       
193,1025.52952294201
2,10, 1,10, 0, 4, 0.00,60.00,Saturday       
193,1025.52952294201
2,10, 1,10, 0, 5, 0.00,60.00,Saturday       
193,1025.52952294201
2,10, 1,10, 0, 6, 0.00,60.00,Saturday       
193,1025.52952294201
2,10, 1,10, 0, 7, 0.00,60.00,Saturday       
193,1025.52952294201
2,10, 1,10, 0, 8, 0.00,60.00,Saturday       
193,1025.52952294201
2,10, 1,10, 0, 9, 0.00,60.00,Saturday       
193,1025.52952294201
2,10, 1,10, 0,10, 0.00,60.00,Saturday       
193,4875.52952294201
2,10, 1,10, 0,11, 0.00,60.00,Saturday       
193,4875.52952294201
2,10, 1,10, 0,12, 0.00,60.00,Saturday       
193,4875.52952294201
2,10, 1,10, 0,13, 0.00,60.00,Saturday       
193,4875.52952294201
2,10, 1,10, 0,14, 0.00,60.00,Saturday       
193,4875.52952294201
2,10, 1,10, 0,15, 0.00,60.00,Saturday       
193,4875.52952294201
2,10, 1,10, 0,16, 0.00,60.00,Saturday       
193,4875.52952294201
2,10, 1,10, 0,17, 0.00,60.00,Saturday       
193,4875.52952294201
2,10, 1,10, 0,18, 0.00,60.00,Saturday       
193,1025.52952294201
2,10, 1,10, 0,19, 0.00,60.00,Saturday       
193,1025.52952294201
2,10, 1,10, 0,20, 0.00,60.00,Saturday       
193,1025.52952294201
2,10, 1,10, 0,21, 0.00,60.00,Saturday       
193,1025.52952294201
2,10, 1,10, 0,22, 0.00,60.00,Saturday       
193,1025.52952294201
2,10, 1,10, 0,23, 0.00,60.00,Saturday       
193,1025.52952294201
2,10, 1,10, 0,24, 0.00,60.00,Saturday       
193,1025.52952294201
2,11, 1,11, 0, 1, 0.00,60.00,Sunday         
193,1025.52952294201
2,11, 1,11, 0, 2, 0.00,60.00,Sunday         
193,1025.52952294201
2,11, 1,11, 0, 3, 0.00,60.00,Sunday         
193,1025.52952294201
2,11, 1,11, 0, 4, 0.00,60.00,Sunday         
193,1025.52952294201
2,11, 1,11, 0, 5, 0.00,60.00,Sunday         
193,1025.52952294201
2,11, 1,11, 0, 6, 0.00,60.00,Sunday         
193,1025.52952294201
2,11, 1,11, 0, 7, 0.00,60.00,Sunday         
193,1025.52952294201
2,11, 1,11, 0, 8, 0.00,60.00,Sunday         
193,1025.52952294201
2,11, 1,11, 0, 9, 0.00,60.00,Sunday         
193,1025.52952294201
2,11, 1,11, 0,10, 0.00,60.00,Sunday         
193,4875.52952294201
2,11, 1,11, 0,11, 0.00,60.00,Sunday         
193,4875.52952294201
2,11, 1,11, 0,12, 0.00,60.00,Sunday         
193,4875.52952294201
2,11, 1,11, 0,13, 0.00,60.00,Sunday         
193,4875.52952294201
2,11, 1,11, 0,14, 0.00,60.00,Sunday         
193,4875.52952294201
2,11, 1,11, 0,15, 0.00,60.00,Sunday         
193,4875.52952294201
2,11, 1,11, 0,16, 0.00,60.00,Sunday         
193,4875.52952294201
2,11, 1,11, 0,17, 0.00,60.00,Sunday         
193,4875.52952294201
2,11, 1,11, 0,18, 0.00,60.00,Sunday         
193,1025.52952294201
2,11, 1,11, 0,19, 0.00,60.00,Sunday         
193,1025.52952294201
2,11, 1,11, 0,20, 0.00,60.00,Sunday         
193,1025.52952294201
2,11, 1,11, 0,21, 0.00,60.00,Sunday         
193,1048.16394856111
2,11, 1,11, 0,22, 0.00,60.00,Sunday         
193,1025.52952294201
2,11, 1,11, 0,23, 0.00,60.00,Sunday         
193,1025.52952294201
2,11, 1,11, 0,24, 0.00,60.00,Sunday         
193,1025.52952294201
2,12, 1,12, 0, 1, 0.00,60.00,Monday         
193,1025.52952294201
2,12, 1,12, 0, 2, 0.00,60.00,Monday         
193,1025.52952294201
2,12, 1,12, 0, 3, 0.00,60.00,Monday         
193,1025.52952294201
2,12, 1,12, 0, 4, 0.00,60.00,Monday         
193,1025.52952294201
2,12, 1,12, 0, 5, 0.00,60.00,Monday         
193,1025.52952294201
2,12, 1,12, 0, 6, 0.00,60.00,Monday         
193,1025.52952294201
2,12, 1,12, 0, 7, 0.00,60.00,Monday         
193,1025.52952294201
2,12, 1,12, 0, 8, 0.00,60.00,Monday         
193,1025.52952294201
2,12, 1,12, 0, 9, 0.00,60.00,Monday         